# Probe 0 (-0.02 -0.125 -0.02)
# Probe 1 (0 -0.125 -0.02)
# Probe 2 (0.02 -0.125 -0.02)
# Probe 3 (0 -0.125 0.02)
# Time        0             1             2             3            
0.00238095    0.0112852     0.0143003     0.0112851     0.0119902    
0.00254237    0.012735      0.0152982     0.0127358     0.0130948    
0.00273608    0.0143998     0.0168256     0.0144008     0.0144037    
0.0029689     0.0166347     0.0187054     0.0166359     0.016158     
0.00324885    0.0192399     0.020987      0.0192409     0.0183392    
0.00358519    0.0222397     0.0236959     0.0222406     0.0210214    
0.0039888     0.0257868     0.0269932     0.0257876     0.0242079    
0.00447313    0.0299066     0.0308631     0.0299074     0.0279873    
0.0050568     0.0346742     0.0354349     0.0346749     0.0325007    
0.00575904    0.0401598     0.0408809     0.0401603     0.0378323    
0.00659378    0.0462411     0.0471352     0.0462417     0.0439216    
0.00760322    0.053221      0.0545454     0.0532216     0.0510845    
0.00881456    0.0611637     0.0632202     0.061164      0.0593522    
0.0102855     0.0698764     0.072974      0.0698766     0.0688927    
0.0120122     0.0792841     0.0837677     0.0792841     0.0794443    
0.0140115     0.0888966     0.0955891     0.0888959     0.0908355    
0.0162608     0.098523      0.108141      0.098522      0.102736     
0.0176104     0.103999      0.115409      0.103998      0.109579     
0.0187672     0.108528      0.121456      0.108525      0.115203     
0.0197432     0.112186      0.126434      0.112198      0.119809     
0.0208638     0.116199      0.132008      0.116224      0.12485      
0.0217743     0.119334      0.136322      0.119366      0.128839     
0.0228197     0.122733      0.14114       0.122773      0.133222     
0.0237257     0.125575      0.145016      0.125619      0.136919     
0.0248205     0.128829      0.149525      0.128877      0.141233     
0.0260795     0.132408      0.154504      0.132459      0.145987     
0.0274866     0.136161      0.159798      0.136212      0.151057     
0.0290947     0.140187      0.165544      0.140249      0.156544     
0.0308368     0.144453      0.171476      0.144512      0.162138     
0.0327531     0.149011      0.177673      0.149068      0.167949     
0.0339029     0.151638      0.181157      0.151688      0.171272     
0.0352443     0.154723      0.185203      0.154766      0.175028     
0.0367199     0.158027      0.189434      0.158062      0.178976     
0.0381954     0.161185      0.193435      0.161221      0.18274      
0.0398818     0.164865      0.197869      0.164863      0.186818     
0.0415682     0.168234      0.202065      0.168222      0.19068      
0.0432545     0.171507      0.20608       0.171486      0.194358     
0.0449409     0.174727      0.20989       0.174693      0.197857     
0.0466273     0.177886      0.213494      0.177835      0.201191     
0.0483136     0.180955      0.216909      0.180886      0.204363     
0.05          0.183978      0.220138      0.183895      0.207385     
0.0515625     0.186624      0.222912      0.186528      0.210064     
0.053125      0.189325      0.225516      0.189206      0.212658     
0.0546875     0.191902      0.227937      0.191767      0.215159     
0.0561979     0.194301      0.230107      0.194153      0.217484     
0.0577083     0.196687      0.232134      0.196523      0.219726     
0.0592188     0.198997      0.23403       0.198821      0.221876     
0.0607292     0.201237      0.235805      0.201039      0.223937     
0.0622396     0.203398      0.237464      0.203177      0.225905     
0.06375       0.205471      0.238998      0.205226      0.227791     
0.0652604     0.20742       0.240434      0.207154      0.229589     
0.0667708     0.209301      0.241767      0.209012      0.231299     
0.0682813     0.211059      0.243023      0.210748      0.232923     
0.0697917     0.212737      0.244198      0.212405      0.234777     
0.0713021     0.214303      0.245338      0.213951      0.236646     
0.0728125     0.215793      0.246543      0.215421      0.238476     
0.0743229     0.217186      0.247714      0.216806      0.240266     
0.0758333     0.21852       0.248857      0.218133      0.242017     
0.0773438     0.219796      0.250005      0.219404      0.243533     
0.0788542     0.221011      0.251101      0.220615      0.244812     
0.0803646     0.222164      0.252201      0.221761      0.246043     
0.081875      0.223248      0.25325       0.22284       0.247229     
0.0833854     0.224268      0.254311      0.223842      0.248374     
0.0848958     0.225216      0.255314      0.224761      0.249484     
0.0864063     0.226076      0.256326      0.225599      0.250561     
0.0879167     0.226853      0.257289      0.22636       0.251613     
0.0894271     0.227552      0.258258      0.227046      0.252642     
0.0909375     0.228172      0.259177      0.227657      0.253639     
0.0924479     0.228706      0.260093      0.228187      0.254616     
0.0939583     0.22916       0.260994      0.22864       0.255612     
0.0954688     0.229539      0.261884      0.22902       0.256583     
0.0969792     0.229844      0.262756      0.229329      0.257549     
0.0984896     0.230077      0.263616      0.229569      0.258465     
0.1           0.230244      0.264462      0.229744      0.259365     
0.101471      0.23034       0.265273      0.229846      0.260197     
0.102941      0.230379      0.266074      0.229894      0.261039     
0.104412      0.230352      0.266868      0.229878      0.261852     
0.105882      0.230269      0.267651      0.229806      0.26265      
0.107353      0.230148      0.268428      0.229699      0.263453     
0.108876      0.230014      0.269143      0.22958       0.264285     
0.110399      0.229803      0.269678      0.229388      0.265049     
0.111922      0.229597      0.270193      0.2292        0.265777     
0.113445      0.229359      0.270687      0.228982      0.266431     
0.114968      0.229103      0.27116       0.228742      0.267013     
0.116492      0.228829      0.27161       0.228483      0.267522     
0.118015      0.228541      0.272039      0.228211      0.267964     
0.119538      0.228247      0.272445      0.227932      0.26834      
0.121061      0.227972      0.272829      0.227652      0.268654     
0.122584      0.227703      0.27322       0.227391      0.268895     
0.124107      0.22742       0.273592      0.22712       0.269073     
0.12563       0.227129      0.273946      0.226837      0.269182     
0.127153      0.226834      0.274283      0.226559      0.269232     
0.128676      0.226541      0.274594      0.226283      0.269223     
0.1302        0.226241      0.274884      0.226009      0.269156     
0.131723      0.225929      0.275163      0.225722      0.269007     
0.133246      0.225607      0.275433      0.225425      0.268757     
0.134769      0.225268      0.275764      0.225109      0.268413     
0.136292      0.224924      0.276079      0.224787      0.267988     
0.137815      0.224575      0.276403      0.22446       0.26749      
0.139338      0.224231      0.276705      0.224131      0.266926     
0.140861      0.22389       0.276996      0.223808      0.266302     
0.142384      0.223551      0.277308      0.223487      0.265612     
0.143908      0.223213      0.277659      0.223167      0.264886     
0.145431      0.222878      0.278045      0.22285       0.264112     
0.146954      0.222546      0.278475      0.222537      0.263315     
0.148477      0.222223      0.278818      0.222228      0.26249      
0.15          0.221927      0.2791        0.22194       0.26165      
0.151613      0.221646      0.27937       0.221667      0.260707     
0.153226      0.221397      0.279568      0.221424      0.259687     
0.154839      0.221181      0.279659      0.221213      0.258597     
0.156452      0.220997      0.279653      0.221034      0.257454     
0.158065      0.220847      0.279552      0.220888      0.256266     
0.159677      0.22073       0.279371      0.220775      0.25503      
0.16129       0.220647      0.279115      0.220695      0.253749     
0.162903      0.220596      0.278783      0.220649      0.252426     
0.164516      0.220578      0.278379      0.220635      0.251076     
0.166129      0.220593      0.277907      0.220669      0.24977      
0.167742      0.220649      0.277371      0.22076       0.248515     
0.169355      0.220758      0.276776      0.220907      0.247317     
0.170968      0.220923      0.276128      0.221084      0.246178     
0.172496      0.221096      0.275445      0.22127       0.245144     
0.174024      0.221297      0.274742      0.221481      0.244151     
0.175552      0.221525      0.274016      0.221713      0.243209     
0.17708       0.221768      0.273287      0.221963      0.24232      
0.178608      0.222013      0.272562      0.22221       0.241485     
0.180136      0.222275      0.271858      0.222472      0.240711     
0.181664      0.222536      0.271165      0.22273       0.239998     
0.183192      0.222824      0.270493      0.223026      0.239347     
0.18472       0.223103      0.269835      0.223312      0.238761     
0.186248      0.223413      0.26921       0.223621      0.238235     
0.187776      0.223726      0.268608      0.223943      0.237753     
0.189304      0.224066      0.268049      0.224254      0.237317     
0.190832      0.224401      0.26752       0.224596      0.236925     
0.19236       0.224748      0.267039      0.224931      0.236576     
0.193888      0.225115      0.266593      0.225293      0.236269     
0.195416      0.225494      0.266193      0.225646      0.236004     
0.196944      0.225879      0.265827      0.226026      0.235776     
0.198472      0.226263      0.265503      0.226413      0.235584     
0.2           0.226671      0.26522       0.226783      0.235422     
0.201563      0.227063      0.264973      0.227178      0.235287     
0.203125      0.227472      0.264768      0.227556      0.23518      
0.204687      0.227876      0.264621      0.227948      0.235111     
0.20625       0.228277      0.264517      0.228339      0.23507      
0.207759      0.228663      0.264441      0.228715      0.235054     
0.209267      0.229054      0.264399      0.229093      0.235057     
0.210776      0.229442      0.264382      0.22948       0.235083     
0.212284      0.229831      0.264388      0.229857      0.235127     
0.213793      0.230212      0.264417      0.230232      0.235193     
0.215241      0.230566      0.264465      0.23061       0.235271     
0.21669       0.230926      0.26454       0.230982      0.235365     
0.218138      0.23128       0.264624      0.23135       0.235472     
0.219586      0.231628      0.264707      0.231713      0.235595     
0.221034      0.231971      0.264789      0.232069      0.235729     
0.222414      0.232285      0.264862      0.232396      0.235866     
0.223793      0.232587      0.264933      0.232714      0.236013     
0.225172      0.232898      0.265001      0.23303       0.236172     
0.226552      0.233196      0.265064      0.233337      0.236336     
0.227931      0.233484      0.265125      0.233633      0.236509     
0.22931       0.233762      0.265184      0.23392       0.236687     
0.230603      0.23401       0.265237      0.234174      0.23686      
0.231897      0.23425       0.265289      0.23442       0.237036     
0.23319       0.234478      0.265338      0.234659      0.23722      
0.234483      0.234713      0.265385      0.234884      0.237405     
0.235776      0.234937      0.265425      0.235119      0.237597     
0.237069      0.23515       0.265458      0.235339      0.237788     
0.238362      0.235356      0.265486      0.23555       0.237987     
0.239655      0.235556      0.26551       0.235752      0.238186     
0.240948      0.235752      0.265529      0.235948      0.238391     
0.242241      0.235934      0.265543      0.236137      0.238599     
0.243534      0.236125      0.265552      0.236318      0.238807     
0.244828      0.236302      0.265554      0.236487      0.239017     
0.246121      0.236471      0.265551      0.236643      0.239228     
0.247414      0.236629      0.265542      0.236809      0.23944      
0.248707      0.236781      0.265527      0.236966      0.239652     
0.25          0.236926      0.265508      0.237111      0.239861     
0.251163      0.237043      0.265487      0.237225      0.240042     
0.252299      0.23715       0.265463      0.237328      0.240219     
0.253434      0.23726       0.265436      0.237423      0.240393     
0.25457       0.237363      0.265406      0.237511      0.240564     
0.255678      0.237453      0.265373      0.237589      0.240725     
0.256786      0.237537      0.265336      0.237661      0.240882     
0.257894      0.237617      0.265294      0.237721      0.241031     
0.259002      0.237694      0.265246      0.237785      0.241174     
0.26011       0.237762      0.265195      0.237845      0.241311     
0.261188      0.237828      0.265144      0.237896      0.241437     
0.262266      0.237887      0.265088      0.23794       0.24156      
0.263345      0.237942      0.26503       0.237983      0.241676     
0.264423      0.237994      0.264972      0.238025      0.241787     
0.265501      0.238043      0.264913      0.238067      0.241893     
0.266579      0.238086      0.264853      0.238105      0.241994     
0.267657      0.238126      0.26479       0.238139      0.242091     
0.268735      0.238163      0.264725      0.23817       0.242184     
0.269813      0.23819       0.264658      0.23819       0.24227      
0.270854      0.238222      0.264588      0.238216      0.242347     
0.271895      0.238252      0.264517      0.238241      0.242421     
0.272936      0.23828       0.264447      0.238263      0.242492     
0.273977      0.238306      0.264376      0.238282      0.242561     
0.275018      0.238329      0.264304      0.238298      0.242626     
0.276059      0.238348      0.264229      0.23831       0.242686     
0.2771        0.238364      0.264152      0.238319      0.242746     
0.278141      0.238379      0.264073      0.238326      0.242802     
0.279182      0.238393      0.263993      0.23833       0.242854     
0.280222      0.238406      0.263911      0.238332      0.242906     
0.281263      0.238417      0.263827      0.238333      0.242956     
0.282304      0.238428      0.263741      0.238334      0.243002     
0.283345      0.238437      0.263654      0.238333      0.243048     
0.284386      0.238446      0.263564      0.238328      0.24309      
0.285427      0.238449      0.263472      0.238331      0.243133     
0.286468      0.238462      0.26338       0.238333      0.243175     
0.287509      0.238474      0.263287      0.238335      0.243216     
0.28855       0.238485      0.263194      0.238335      0.243254     
0.289591      0.238496      0.263101      0.238334      0.243293     
0.290632      0.238505      0.263006      0.238331      0.243329     
0.291673      0.238513      0.26291       0.238327      0.243364     
0.292714      0.238519      0.262813      0.238321      0.243399     
0.293754      0.238526      0.262715      0.238316      0.243434     
0.294795      0.238533      0.262617      0.238311      0.243468     
0.295836      0.238539      0.262518      0.238305      0.243504     
0.296877      0.238545      0.262418      0.2383        0.243539     
0.297918      0.23855       0.262316      0.238293      0.243572     
0.298959      0.238553      0.262212      0.238285      0.243606     
0.3           0.238555      0.262106      0.238276      0.243638     
0.300962      0.238555      0.262006      0.238266      0.243664     
0.301923      0.238553      0.261905      0.238253      0.24369      
0.302866      0.23855       0.261806      0.23824       0.243716     
0.303808      0.238546      0.261705      0.238225      0.24374      
0.304751      0.238539      0.261602      0.238207      0.243763     
0.305694      0.238531      0.261498      0.238188      0.243786     
0.306637      0.238521      0.261392      0.238167      0.243806     
0.307579      0.23851       0.261284      0.238144      0.243826     
0.308522      0.238496      0.261172      0.238123      0.243844     
0.309465      0.23848       0.261058      0.238101      0.243861     
0.310407      0.238465      0.260945      0.238079      0.243879     
0.31135       0.238449      0.260831      0.238056      0.243897     
0.312293      0.238433      0.260716      0.238031      0.243915     
0.313235      0.238416      0.260601      0.238006      0.243933     
0.314178      0.238399      0.260486      0.237979      0.243951     
0.315121      0.238381      0.260369      0.237951      0.243968     
0.316063      0.238364      0.260253      0.237923      0.243987     
0.317006      0.238347      0.260136      0.237895      0.244005     
0.317949      0.238329      0.260019      0.237866      0.244024     
0.318891      0.238312      0.259902      0.237837      0.244045     
0.319834      0.238293      0.259782      0.237805      0.244063     
0.320777      0.238277      0.259667      0.237774      0.244081     
0.321719      0.23826       0.259551      0.237742      0.244101     
0.322662      0.238242      0.259434      0.23771       0.244122     
0.323605      0.238225      0.259316      0.237679      0.244142     
0.324548      0.238208      0.259198      0.237648      0.244164     
0.32549       0.238191      0.259079      0.237616      0.244187     
0.326433      0.238173      0.258959      0.237584      0.244209     
0.327376      0.238156      0.258839      0.237553      0.244233     
0.328318      0.238139      0.258719      0.237522      0.244258     
0.329261      0.238121      0.258598      0.237491      0.244282     
0.330204      0.238104      0.258478      0.23746       0.244308     
0.331146      0.238086      0.258357      0.237431      0.244334     
0.332089      0.238069      0.258236      0.237401      0.24436      
0.333032      0.238052      0.258114      0.237372      0.244388     
0.333925      0.238034      0.257999      0.237345      0.244412     
0.334818      0.238015      0.257884      0.237316      0.244436     
0.335711      0.237995      0.257769      0.237286      0.24446      
0.336604      0.237974      0.257652      0.237257      0.244485     
0.337497      0.237952      0.257535      0.237227      0.244509     
0.33839       0.237931      0.257417      0.237198      0.244534     
0.339283      0.237909      0.257297      0.237168      0.244558     
0.340176      0.237885      0.257177      0.237137      0.244582     
0.341069      0.237862      0.257055      0.237106      0.244607     
0.341962      0.237837      0.256932      0.237074      0.24463      
0.342855      0.237812      0.256807      0.237042      0.244654     
0.343749      0.237787      0.256684      0.23701       0.244677     
0.344642      0.237764      0.256561      0.236979      0.244702     
0.345535      0.23774       0.256437      0.236949      0.244727     
0.346428      0.237717      0.256314      0.236918      0.244752     
0.347321      0.237693      0.256191      0.236888      0.244776     
0.348214      0.237671      0.256068      0.236858      0.244801     
0.349107      0.237649      0.255945      0.236828      0.244825     
0.35          0.237629      0.255822      0.2368        0.244851     
0.350926      0.237609      0.255696      0.236771      0.244876     
0.351852      0.237591      0.255571      0.236744      0.244903     
0.352778      0.237575      0.255448      0.236718      0.24493      
0.353704      0.23756       0.255324      0.236693      0.244958     
0.35463       0.237545      0.255202      0.236668      0.244985     
0.355556      0.23753       0.255081      0.236644      0.245013     
0.356481      0.237518      0.254961      0.236623      0.245041     
0.357407      0.237506      0.254843      0.236603      0.245071     
0.358333      0.237496      0.254727      0.236584      0.245101     
0.359259      0.237487      0.254613      0.236568      0.245132     
0.360185      0.237479      0.254501      0.236553      0.245164     
0.361111      0.237471      0.254391      0.236539      0.245197     
0.362037      0.237464      0.254281      0.236525      0.245228     
0.362963      0.237457      0.254173      0.236513      0.24526      
0.363889      0.23745       0.254067      0.236501      0.245291     
0.364815      0.237444      0.253962      0.23649       0.245323     
0.365741      0.237438      0.253859      0.236479      0.245353     
0.366667      0.237433      0.253757      0.23647       0.245384     
0.367593      0.237428      0.253658      0.236461      0.245415     
0.368519      0.237425      0.253561      0.236454      0.245447     
0.369444      0.237422      0.253466      0.236448      0.245478     
0.37037       0.237419      0.253373      0.236442      0.245509     
0.371296      0.237417      0.253282      0.236437      0.24554      
0.372222      0.237415      0.253192      0.236433      0.245571     
0.373148      0.237413      0.253105      0.236428      0.2456       
0.374074      0.237412      0.253018      0.236424      0.245629     
0.375         0.237411      0.252935      0.236422      0.245658     
0.375926      0.237412      0.252854      0.23642       0.245687     
0.376852      0.237413      0.252776      0.23642       0.245717     
0.377778      0.237414      0.252699      0.236419      0.245745     
0.378704      0.237415      0.252624      0.236419      0.245773     
0.37963       0.237417      0.252551      0.23642       0.245801     
0.380556      0.23742       0.252481      0.236421      0.245829     
0.381481      0.237423      0.252413      0.236423      0.245857     
0.382407      0.237427      0.252348      0.236425      0.245883     
0.383333      0.237431      0.252284      0.236428      0.245909     
0.384259      0.237436      0.252224      0.236431      0.245936     
0.385185      0.237442      0.252166      0.236436      0.245963     
0.386111      0.237448      0.252111      0.236441      0.245988     
0.387037      0.237453      0.252057      0.236445      0.246013     
0.387963      0.237459      0.252006      0.236449      0.246036     
0.388889      0.237465      0.251956      0.236454      0.246059     
0.389815      0.237471      0.25191       0.236458      0.24608      
0.390741      0.237478      0.251865      0.236463      0.246101     
0.391667      0.237486      0.251825      0.236468      0.246122     
0.392593      0.237494      0.251786      0.236473      0.246142     
0.393519      0.237502      0.251751      0.236478      0.246161     
0.394444      0.23751       0.251718      0.236483      0.246179     
0.39537       0.237518      0.251687      0.236488      0.246196     
0.396296      0.237526      0.251659      0.236492      0.246211     
0.397222      0.237534      0.251634      0.236497      0.246226     
0.398148      0.237542      0.25161       0.236502      0.24624      
0.399074      0.237551      0.25159       0.236507      0.246253     
0.4           0.237559      0.251572      0.236511      0.246265     
0.400962      0.237569      0.251557      0.236516      0.246277     
0.401923      0.237581      0.251546      0.236523      0.246288     
0.402885      0.237594      0.251538      0.23653       0.246298     
0.403846      0.237608      0.251533      0.236539      0.246309     
0.404828      0.237624      0.251531      0.236548      0.246319     
0.40581       0.237641      0.251533      0.236559      0.246329     
0.406792      0.237661      0.251539      0.236571      0.246339     
0.407774      0.237683      0.251548      0.236584      0.246348     
0.408756      0.237705      0.251561      0.236599      0.246357     
0.409738      0.23773       0.251577      0.236614      0.246366     
0.41072       0.237756      0.251597      0.236632      0.246375     
0.411702      0.237784      0.25162       0.236651      0.246386     
0.412684      0.237813      0.251647      0.236671      0.246396     
0.413666      0.237842      0.251676      0.236692      0.246404     
0.414648      0.237872      0.251708      0.236713      0.246413     
0.41563       0.237903      0.251742      0.236735      0.246421     
0.416612      0.237934      0.251779      0.236757      0.246428     
0.417594      0.237966      0.251818      0.23678       0.246436     
0.418576      0.237999      0.251859      0.236803      0.246443     
0.419558      0.238032      0.251904      0.236827      0.246451     
0.42054       0.238066      0.25195       0.236851      0.246457     
0.421522      0.2381        0.251998      0.236876      0.246463     
0.422504      0.238133      0.252048      0.236901      0.246467     
0.423486      0.238168      0.2521        0.236926      0.246472     
0.424468      0.238203      0.252154      0.236952      0.246478     
0.42545       0.238239      0.25221       0.236979      0.246483     
0.426432      0.238276      0.252268      0.237006      0.246489     
0.427414      0.238313      0.252328      0.237035      0.246496     
0.428396      0.23835       0.252389      0.237062      0.246505     
0.429378      0.238387      0.252451      0.23709       0.246514     
0.43036       0.238424      0.252513      0.237118      0.246522     
0.431342      0.23846       0.252576      0.237145      0.246529     
0.432324      0.238497      0.25264       0.237179      0.246536     
0.433306      0.238534      0.252704      0.237213      0.246543     
0.434288      0.238571      0.252768      0.237249      0.246549     
0.43527       0.238608      0.252832      0.237285      0.246554     
0.436252      0.238644      0.252896      0.237321      0.246559     
0.437234      0.238682      0.252961      0.237357      0.246564     
0.438216      0.238722      0.253026      0.237394      0.246569     
0.439198      0.238763      0.253093      0.23743       0.246574     
0.44018       0.238806      0.25316       0.237467      0.246579     
0.441162      0.238849      0.253227      0.237503      0.246584     
0.442144      0.238893      0.253293      0.237539      0.24659      
0.443126      0.238938      0.253372      0.237575      0.246597     
0.444108      0.238983      0.253453      0.237612      0.246603     
0.44509       0.239027      0.253537      0.237647      0.24661      
0.446072      0.239071      0.253622      0.237683      0.24662      
0.447054      0.239116      0.253709      0.237719      0.246631     
0.448036      0.239159      0.253798      0.237755      0.246642     
0.449018      0.239202      0.253887      0.23779       0.246653     
0.45          0.239243      0.253979      0.237825      0.246664     
0.45098       0.239284      0.254071      0.23786       0.246675     
0.451961      0.239324      0.254164      0.237894      0.246687     
0.452941      0.239363      0.254259      0.237929      0.2467       
0.453922      0.239402      0.254356      0.237964      0.246715     
0.454902      0.239439      0.254451      0.237999      0.246729     
0.455882      0.239476      0.254549      0.238033      0.246744     
0.456863      0.239512      0.254648      0.238068      0.246759     
0.457843      0.239546      0.254748      0.238102      0.246775     
0.458824      0.239579      0.254849      0.238135      0.24679      
0.459804      0.239611      0.254952      0.238169      0.246806     
0.460784      0.239643      0.255057      0.238202      0.246823     
0.461765      0.239673      0.255161      0.238234      0.246839     
0.462745      0.239703      0.255267      0.238267      0.246856     
0.463725      0.239731      0.255373      0.238299      0.246874     
0.464706      0.239759      0.25548       0.23833       0.246892     
0.465686      0.239786      0.255587      0.238361      0.246911     
0.466667      0.239813      0.255694      0.238392      0.246931     
0.467619      0.239836      0.255796      0.238422      0.24695      
0.468571      0.239858      0.2559        0.23845       0.246969     
0.469524      0.239879      0.256003      0.238478      0.246989     
0.470476      0.239898      0.256105      0.238506      0.247008     
0.471429      0.239917      0.256207      0.238534      0.247029     
0.472381      0.239933      0.256309      0.238562      0.247052     
0.473333      0.23995       0.25641       0.23859       0.247077     
0.474286      0.239964      0.25651       0.238617      0.247101     
0.475238      0.239978      0.25661       0.238644      0.247125     
0.47619       0.239991      0.256708      0.23867       0.247148     
0.477143      0.240003      0.256807      0.238696      0.247173     
0.478095      0.240015      0.256904      0.238721      0.247197     
0.479048      0.240026      0.257001      0.238746      0.247219     
0.48          0.240036      0.257098      0.238769      0.247242     
0.480952      0.240046      0.257193      0.238792      0.247266     
0.481905      0.240054      0.257287      0.238814      0.247292     
0.482857      0.240062      0.257381      0.238834      0.247319     
0.48381       0.240069      0.257473      0.238854      0.247348     
0.484762      0.240076      0.257564      0.238872      0.24738      
0.485714      0.240081      0.257654      0.238889      0.247413     
0.486667      0.240086      0.257743      0.238905      0.247447     
0.487619      0.24009       0.25783       0.238919      0.247484     
0.488571      0.240094      0.257916      0.238934      0.247523     
0.489524      0.240098      0.258002      0.238947      0.247564     
0.490476      0.240102      0.258086      0.23896       0.247607     
0.491429      0.240105      0.258169      0.238972      0.247652     
0.492381      0.240109      0.258251      0.238983      0.247699     